ligand_GMX.gro created by acpype (v: 2023.10.27) on Wed Mar 18 20:20:33 2026
 30
    1  ERL    N    1  -0.885   3.423   1.371
    1  ERL   N1    2  -1.269   3.506   1.507
    1  ERL   N2    3  -1.110   3.354   1.422
    1  ERL    C    4  -1.053   3.584   1.443
    1  ERL   C1    5  -1.182   3.609   1.493
    1  ERL   C2    6  -1.002   3.820   1.451
    1  ERL   C3    7  -1.128   3.845   1.508
    1  ERL   C4    8  -0.965   3.689   1.422
    1  ERL   C5    9  -1.018   3.453   1.409
    1  ERL   C6   10  -1.218   3.739   1.529
    1  ERL   C7   11  -1.234   3.380   1.470
    1  ERL    H   12  -0.808   3.477   1.414
    1  ERL   C8   13  -0.852   3.310   1.293
    1  ERL   C9   14  -0.735   3.241   1.322
    1  ERL  C10   15  -0.932   3.269   1.186
    1  ERL  C11   16  -0.700   3.129   1.248
    1  ERL  C12   17  -0.893   3.160   1.107
    1  ERL  C13   18  -0.778   3.089   1.139
    1  ERL  C14   19  -0.585   3.057   1.290
    1  ERL  C15   20  -0.487   3.003   1.334
    1  ERL    O   21  -0.919   3.924   1.426
    1  ERL  C16   22  -0.803   3.910   1.353
    1  ERL  C17   23  -0.686   3.970   1.428
    1  ERL   O1   24  -0.596   4.024   1.337
    1  ERL  C18   25  -0.507   3.921   1.306
    1  ERL   O2   26  -1.157   3.972   1.542
    1  ERL  C19   27  -1.220   4.004   1.660
    1  ERL  C20   28  -1.113   4.033   1.764
    1  ERL   O3   29  -1.043   3.916   1.796
    1  ERL  C21   30  -0.910   3.941   1.763
   15.65200    20.61200    13.78400
