ligand_GMX.gro created by acpype (v: 2023.10.27) on Wed Mar 18 20:54:55 2026
 30
    1  ERL    N    1  -0.912   3.409   1.375
    1  ERL   N1    2  -1.304   3.417   1.501
    1  ERL   N2    3  -1.119   3.300   1.421
    1  ERL    C    4  -1.108   3.537   1.445
    1  ERL   C1    5  -1.240   3.534   1.490
    1  ERL   C2    6  -1.108   3.780   1.466
    1  ERL   C3    7  -1.242   3.776   1.513
    1  ERL   C4    8  -1.043   3.660   1.433
    1  ERL   C5    9  -1.048   3.415   1.410
    1  ERL   C6   10  -1.305   3.651   1.524
    1  ERL   C7   11  -1.246   3.300   1.467
    1  ERL    H   12  -0.848   3.458   1.439
    1  ERL   C8   13  -0.862   3.304   1.296
    1  ERL   C9   14  -0.751   3.234   1.340
    1  ERL  C10   15  -0.925   3.268   1.175
    1  ERL  C11   16  -0.704   3.125   1.262
    1  ERL  C12   17  -0.873   3.165   1.097
    1  ERL  C13   18  -0.763   3.094   1.144
    1  ERL  C14   19  -0.593   3.050   1.309
    1  ERL  C15   20  -0.499   2.997   1.359
    1  ERL    O   21  -1.042   3.898   1.451
    1  ERL  C16   22  -0.919   3.905   1.388
    1  ERL  C17   23  -0.808   3.949   1.484
    1  ERL   O1   24  -0.801   3.865   1.595
    1  ERL  C18   25  -0.709   3.766   1.562
    1  ERL   O2   26  -1.313   3.887   1.548
    1  ERL  C19   27  -1.444   3.874   1.591
    1  ERL  C20   28  -1.501   4.002   1.647
    1  ERL   O3   29  -1.563   3.973   1.769
    1  ERL  C21   30  -1.520   4.075   1.854
   21.27000    21.55800    15.13400
