; ligand_GMX.itp created by acpype (v: 2023.10.27) on Mon Mar 16 13:43:06 2026

[ atomtypes ]
;name   bond_type     mass     charge   ptype   sigma         epsilon       Amb
 n7       n7          0.00000  0.00000   A     3.50765e-01   2.18405e-01 ; 1.97  0.0522
 n2       n2          0.00000  0.00000   A     3.38417e-01   3.93714e-01 ; 1.90  0.0941
 c2       c2          0.00000  0.00000   A     3.31521e-01   4.13379e-01 ; 1.86  0.0988
 c1       c1          0.00000  0.00000   A     3.47896e-01   6.67766e-01 ; 1.95  0.1596
 hn       hn          0.00000  0.00000   A     1.10650e-01   4.18400e-02 ; 0.62  0.0100
 cg       cg          0.00000  0.00000   A     3.47896e-01   6.67766e-01 ; 1.95  0.1596
 os       os          0.00000  0.00000   A     3.15610e-01   3.03758e-01 ; 1.77  0.0726

[ moleculetype ]
;name            nrexcl
 ligand           3

[ atoms ]
;   nr  type  resi  res  atom  cgnr     charge      mass       ; qtot   bond_type
     1   n7     1   ERL     N    1    -0.596800     14.01000 ; qtot -0.597
     2   n2     1   ERL    N1    2    -0.196000     14.01000 ; qtot -0.793
     3   n2     1   ERL    N2    3    -0.244000     14.01000 ; qtot -1.037
     4   c2     1   ERL     C    4    -0.219000     12.01000 ; qtot -1.256
     5   c2     1   ERL    C1    5     0.114000     12.01000 ; qtot -1.142
     6   c2     1   ERL    C2    6     0.222100     12.01000 ; qtot -0.920
     7   c2     1   ERL    C3    7     0.035100     12.01000 ; qtot -0.885
     8   c1     1   ERL    C4    8    -0.115000     12.01000 ; qtot -1.000
     9   c2     1   ERL    C5    9     0.316000     12.01000 ; qtot -0.684
    10   c1     1   ERL    C6   10    -0.034000     12.01000 ; qtot -0.718
    11   c1     1   ERL    C7   11     0.059000     12.01000 ; qtot -0.659
    12   hn     1   ERL     H   12     0.467800      1.00800 ; qtot -0.191
    13   c2     1   ERL    C8   13     0.205000     12.01000 ; qtot 0.014
    14   c1     1   ERL    C9   14    -0.334000     12.01000 ; qtot -0.320
    15   c1     1   ERL   C10   15     0.198000     12.01000 ; qtot -0.122
    16   c2     1   ERL   C11   16     0.391300     12.01000 ; qtot 0.270
    17   c1     1   ERL   C12   17    -0.099000     12.01000 ; qtot 0.171
    18   c1     1   ERL   C13   18     0.007000     12.01000 ; qtot 0.178
    19   cg     1   ERL   C14   19    -0.611300     12.01000 ; qtot -0.434
    20   c1     1   ERL   C15   20     0.230000     12.01000 ; qtot -0.204
    21   os     1   ERL     O   21    -0.029700     16.00000 ; qtot -0.234
    22   c1     1   ERL   C16   22    -0.037400     12.01000 ; qtot -0.271
    23   c1     1   ERL   C17   23    -0.106400     12.01000 ; qtot -0.377
    24   os     1   ERL    O1   24     0.043800     16.00000 ; qtot -0.334
    25   c1     1   ERL   C18   25     0.179600     12.01000 ; qtot -0.154
    26   os     1   ERL    O2   26    -0.140700     16.00000 ; qtot -0.295
    27   c1     1   ERL   C19   27    -0.179400     12.01000 ; qtot -0.474
    28   c1     1   ERL   C20   28     0.186600     12.01000 ; qtot -0.287
    29   os     1   ERL    O3   29    -0.187200     16.00000 ; qtot -0.475
    30   c1     1   ERL   C21   30     0.474600     12.01000 ; qtot -0.000

[ bonds ]
;   ai     aj funct   r             k
     1      9   1    1.4210e-01    2.4537e+05 ;      N - C5    
     1     12   1    1.0195e-01    3.8497e+05 ;      N - H     
     1     13   1    1.4210e-01    2.4537e+05 ;      N - C8    
     2      5   1    1.2809e-01    3.9831e+05 ;     N1 - C1    
     2     11   1    1.1951e-01    5.5099e+05 ;     N1 - C7    
     3      9   1    1.2809e-01    3.9831e+05 ;     N2 - C5    
     3     11   1    1.1951e-01    5.5099e+05 ;     N2 - C7    
     4      5   1    1.3379e-01    3.6484e+05 ;      C - C1    
     4      8   1    1.3185e-01    3.9066e+05 ;      C - C4    
     4      9   1    1.3379e-01    3.6484e+05 ;      C - C5    
     5     10   1    1.3185e-01    3.9066e+05 ;     C1 - C6    
     6      7   1    1.3379e-01    3.6484e+05 ;     C2 - C3    
     6      8   1    1.3185e-01    3.9066e+05 ;     C2 - C4    
     6     21   1    1.3628e-01    2.9327e+05 ;     C2 - O     
     7     10   1    1.3185e-01    3.9066e+05 ;     C3 - C6    
     7     26   1    1.3628e-01    2.9327e+05 ;     C3 - O2    
    13     14   1    1.3185e-01    3.9066e+05 ;     C8 - C9    
    13     15   1    1.3185e-01    3.9066e+05 ;     C8 - C10   
    14     16   1    1.3185e-01    3.9066e+05 ;     C9 - C11   
    15     17   1    1.2095e-01    5.8503e+05 ;    C10 - C12   
    16     18   1    1.3185e-01    3.9066e+05 ;    C11 - C13   
    16     19   1    1.4200e-01    2.7646e+05 ;    C11 - C14   
    17     18   1    1.2095e-01    5.8503e+05 ;    C12 - C13   
    19     20   1    1.2148e-01    5.7318e+05 ;    C14 - C15   
    21     22   1    1.3141e-01    3.4772e+05 ;      O - C16   
    22     23   1    1.2095e-01    5.8503e+05 ;    C16 - C17   
    23     24   1    1.3141e-01    3.4772e+05 ;    C17 - O1    
    24     25   1    1.3141e-01    3.4772e+05 ;     O1 - C18   
    26     27   1    1.3141e-01    3.4772e+05 ;     O2 - C19   
    27     28   1    1.2095e-01    5.8503e+05 ;    C19 - C20   
    28     29   1    1.3141e-01    3.4772e+05 ;    C20 - O3    
    29     30   1    1.3141e-01    3.4772e+05 ;     O3 - C21   

[ pairs ]
;   ai     aj    funct
     1      5      1 ;      N - C1    
     1      8      1 ;      N - C4    
     1     11      1 ;      N - C7    
     1     16      1 ;      N - C11   
     1     17      1 ;      N - C12   
     2      7      1 ;     N1 - C3    
     2      8      1 ;     N1 - C4    
     2      9      1 ;     N1 - C5    
     3      5      1 ;     N2 - C1    
     3      8      1 ;     N2 - C4    
     4      7      1 ;      C - C3    
     4     11      1 ;      C - C7    
     4     21      1 ;      C - O     
     5      6      1 ;     C1 - C2    
     5     26      1 ;     C1 - O2    
     6      9      1 ;     C2 - C5    
     6     23      1 ;     C2 - C17   
     6     27      1 ;     C2 - C19   
     7     22      1 ;     C3 - C16   
     7     28      1 ;     C3 - C20   
     8     10      1 ;     C4 - C6    
     8     22      1 ;     C4 - C16   
     8     26      1 ;     C4 - O2    
     9     10      1 ;     C5 - C6    
     9     14      1 ;     C5 - C9    
     9     15      1 ;     C5 - C10   
    10     11      1 ;     C6 - C7    
    10     21      1 ;     C6 - O     
    10     27      1 ;     C6 - C19   
    12      3      1 ;      H - N2    
    12      4      1 ;      H - C     
    12     14      1 ;      H - C9    
    12     15      1 ;      H - C10   
    13      3      1 ;     C8 - N2    
    13      4      1 ;     C8 - C     
    13     18      1 ;     C8 - C13   
    13     19      1 ;     C8 - C14   
    14     17      1 ;     C9 - C12   
    14     20      1 ;     C9 - C15   
    15     16      1 ;    C10 - C11   
    17     19      1 ;    C12 - C14   
    18     20      1 ;    C13 - C15   
    21     24      1 ;      O - O1    
    21     26      1 ;      O - O2    
    22     25      1 ;    C16 - C18   
    26     29      1 ;     O2 - O3    
    27     30      1 ;    C19 - C21   

[ angles ]
;   ai     aj     ak    funct   theta         cth
     1      9      3      1    1.1615e+02    6.2860e+02 ;      N - C5     - N2    
     1      9      4      1    1.2455e+02    7.3973e+02 ;      N - C5     - C     
     1     13     14      1    7.1805e+01    7.4470e+02 ;      N - C8     - C9    
     1     13     15      1    7.1805e+01    7.4470e+02 ;      N - C8     - C10   
     2      5      4      1    1.2601e+02    7.5145e+02 ;     N1 - C1     - C     
     2      5     10      1    6.9480e+01    7.9963e+02 ;     N1 - C1     - C6    
     2     11      3      1    1.7177e+02    5.8735e+02 ;     N1 - C7     - N2    
     3      9      4      1    1.2601e+02    7.5145e+02 ;     N2 - C5     - C     
     4      5     10      1    1.1381e+02    5.7614e+02 ;      C - C1     - C6    
     4      8      6      1    1.7933e+02    4.6242e+02 ;      C - C4     - C2    
     5      2     11      1    1.1964e+02    7.4331e+02 ;     C1 - N1     - C7    
     5      4      8      1    1.1381e+02    5.7614e+02 ;     C1 - C      - C4    
     5      4      9      1    1.2408e+02    5.4785e+02 ;     C1 - C      - C5    
     5     10      7      1    1.7933e+02    4.6242e+02 ;     C1 - C6     - C3    
     6      7     10      1    1.1381e+02    5.7614e+02 ;     C2 - C3     - C6    
     6      7     26      1    1.2186e+02    6.6977e+02 ;     C2 - C3     - O2    
     6     21     22      1    1.1727e+02    7.7530e+02 ;     C2 - O      - C16   
     7      6      8      1    1.1381e+02    5.7614e+02 ;     C3 - C2     - C4    
     7      6     21      1    1.2186e+02    6.6977e+02 ;     C3 - C2     - O     
     7     26     27      1    1.1727e+02    7.7530e+02 ;     C3 - O2     - C19   
     8      4      9      1    1.1381e+02    5.7614e+02 ;     C4 - C      - C5    
     8      6     21      1    1.2067e+02    6.7764e+02 ;     C4 - C2     - O     
     9      1     12      1    1.1938e+02    4.1422e+02 ;     C5 - N      - H     
     9      1     13      1    1.2468e+02    5.7070e+02 ;     C5 - N      - C8    
     9      3     11      1    1.1964e+02    7.4331e+02 ;     C5 - N2     - C7    
    10      7     26      1    1.2067e+02    6.7764e+02 ;     C6 - C3     - O2    
    12      1     13      1    1.1938e+02    4.1422e+02 ;      H - N      - C8    
    13     14     16      1    1.7933e+02    4.6242e+02 ;     C8 - C9     - C11   
    13     15     17      1    1.8000e+02    4.7965e+02 ;     C8 - C10    - C12   
    14     13     15      1    2.5140e+01    1.2349e+03 ;     C9 - C8     - C10   
    14     16     18      1    2.5140e+01    1.2349e+03 ;     C9 - C11    - C13   
    14     16     19      1    2.5140e+01    1.2349e+03 ;     C9 - C11    - C14   
    15     17     18      1    1.1612e+02    6.2643e+02 ;    C10 - C12    - C13   
    16     18     17      1    1.8000e+02    4.7965e+02 ;    C11 - C13    - C12   
    16     19     20      1    1.7805e+02    4.5714e+02 ;    C11 - C14    - C15   
    18     16     19      1    2.5140e+01    1.2349e+03 ;    C13 - C11    - C14   
    21     22     23      1    1.7713e+02    5.9254e+02 ;      O - C16    - C17   
    22     23     24      1    1.7713e+02    5.9254e+02 ;    C16 - C17    - O1    
    23     24     25      1    1.1502e+02    5.9580e+02 ;    C17 - O1     - C18   
    26     27     28      1    1.7713e+02    5.9254e+02 ;     O2 - C19    - C20   
    27     28     29      1    1.7713e+02    5.9254e+02 ;    C19 - C20    - O3    
    28     29     30      1    1.1502e+02    5.9580e+02 ;    C20 - O3     - C21   

[ dihedrals ] ; propers
; for gromacs 4.5 or higher, using funct 9
;    i      j      k      l   func   phase     kd      pn
     1      9      3     11      9   180.00  17.36360   2 ;      N-    C5-    N2-    C7
     1      9      4      5      9   180.00  27.82360   2 ;      N-    C5-     C-    C1
     1      9      4      8      9   180.00  27.82360   2 ;      N-    C5-     C-    C4
     1     13     14     16      9   180.00   0.00000   2 ;      N-    C8-    C9-   C11
     1     13     15     17      9   180.00   0.00000   2 ;      N-    C8-   C10-   C12
     2      5      4      8      9   180.00  27.82360   2 ;     N1-    C1-     C-    C4
     2      5      4      9      9   180.00  27.82360   2 ;     N1-    C1-     C-    C5
     2      5     10      7      9   180.00   0.00000   2 ;     N1-    C1-    C6-    C3
     2     11      3      9      9   180.00   0.00000   2 ;     N1-    C7-    N2-    C5
     3      9      4      5      9   180.00  27.82360   2 ;     N2-    C5-     C-    C1
     3      9      4      8      9   180.00  27.82360   2 ;     N2-    C5-     C-    C4
     3     11      2      5      9   180.00   0.00000   2 ;     N2-    C7-    N1-    C1
     4      5      2     11      9   180.00  17.36360   2 ;      C-    C1-    N1-    C7
     4      5     10      7      9   180.00   0.00000   2 ;      C-    C1-    C6-    C3
     4      8      6      7      9   180.00   0.00000   2 ;      C-    C4-    C2-    C3
     4      8      6     21      9   180.00   0.00000   2 ;      C-    C4-    C2-     O
     4      9      3     11      9   180.00  17.36360   2 ;      C-    C5-    N2-    C7
     5      4      8      6      9   180.00   0.00000   2 ;     C1-     C-    C4-    C2
     5     10      7      6      9   180.00   0.00000   2 ;     C1-    C6-    C3-    C2
     5     10      7     26      9   180.00   0.00000   2 ;     C1-    C6-    C3-    O2
     6      7     26     27      9   180.00   4.39320   2 ;     C2-    C3-    O2-   C19
     6      8      4      9      9   180.00   0.00000   2 ;     C2-    C4-     C-    C5
     6     21     22     23      9   180.00   0.00000   2 ;     C2-     O-   C16-   C17
     7      6     21     22      9   180.00   4.39320   2 ;     C3-    C2-     O-   C16
     7     26     27     28      9   180.00   0.00000   2 ;     C3-    O2-   C19-   C20
     8      4      5     10      9   180.00  27.82360   2 ;     C4-     C-    C1-    C6
     8      6      7     10      9   180.00  27.82360   2 ;     C4-    C2-    C3-    C6
     8      6      7     26      9   180.00  27.82360   2 ;     C4-    C2-    C3-    O2
     8      6     21     22      9   180.00   4.39320   2 ;     C4-    C2-     O-   C16
     9      1     13     14      9   180.00   1.25520   2 ;     C5-     N-    C8-    C9
     9      1     13     15      9   180.00   1.25520   2 ;     C5-     N-    C8-   C10
     9      4      5     10      9   180.00  27.82360   2 ;     C5-     C-    C1-    C6
    10      5      2     11      9   180.00  17.36360   2 ;     C6-    C1-    N1-    C7
    10      7      6     21      9   180.00  27.82360   2 ;     C6-    C3-    C2-     O
    10      7     26     27      9   180.00   4.39320   2 ;     C6-    C3-    O2-   C19
    12      1      9      3      9   180.00   1.25520   2 ;      H-     N-    C5-    N2
    12      1      9      4      9   180.00   1.25520   2 ;      H-     N-    C5-     C
    12      1     13     14      9   180.00   1.25520   2 ;      H-     N-    C8-    C9
    12      1     13     15      9   180.00   1.25520   2 ;      H-     N-    C8-   C10
    13      1      9      3      9   180.00   1.25520   2 ;     C8-     N-    C5-    N2
    13      1      9      4      9   180.00   1.25520   2 ;     C8-     N-    C5-     C
    13     14     16     18      9   180.00   0.00000   2 ;     C8-    C9-   C11-   C13
    13     14     16     19      9   180.00   0.00000   2 ;     C8-    C9-   C11-   C14
    13     15     17     18      9   180.00   0.00000   2 ;     C8-   C10-   C12-   C13
    14     13     15     17      9   180.00   0.00000   2 ;     C9-    C8-   C10-   C12
    14     16     18     17      9   180.00   0.00000   2 ;     C9-   C11-   C13-   C12
    14     16     19     20      9   180.00   0.00000   2 ;     C9-   C11-   C14-   C15
    15     13     14     16      9   180.00   0.00000   2 ;    C10-    C8-    C9-   C11
    15     17     18     16      9   180.00   0.00000   2 ;    C10-   C12-   C13-   C11
    17     18     16     19      9   180.00   0.00000   2 ;    C12-   C13-   C11-   C14
    18     16     19     20      9   180.00   0.00000   2 ;    C13-   C11-   C14-   C15
    21      6      7     26      9   180.00  27.82360   2 ;      O-    C2-    C3-    O2
    21     22     23     24      9   180.00   0.00000   2 ;      O-   C16-   C17-    O1
    22     23     24     25      9   180.00   0.00000   2 ;    C16-   C17-    O1-   C18
    26     27     28     29      9   180.00   0.00000   2 ;     O2-   C19-   C20-    O3
    27     28     29     30      9   180.00   0.00000   2 ;    C19-   C20-    O3-   C21

[ dihedrals ] ; impropers
; treated as propers in GROMACS to use correct AMBER analytical function
;    i      j      k      l   func   phase     kd      pn
     1      9      3      4      4   180.00   4.60240   2 ;      N-    C5-    N2-     C
     1     13     15     14      4   180.00   4.60240   2 ;      N-    C8-   C10-    C9
     8      5      4      9      4   180.00   4.60240   2 ;     C4-    C1-     C-    C5
     8      7      6     21      4   180.00   4.60240   2 ;     C4-    C3-    C2-     O
    10      4      5      2      4   180.00   4.60240   2 ;     C6-     C-    C1-    N1
    10      6      7     26      4   180.00   4.60240   2 ;     C6-    C2-    C3-    O2
    14     18     16     19      4   180.00   4.60240   2 ;     C9-   C13-   C11-   C14
