ligand_GMX.gro created by acpype (v: 2023.10.27) on Mon Mar 16 13:43:06 2026
 30
    1  ERL    N    1  -0.904   3.415   1.375
    1  ERL   N1    2  -1.298   3.423   1.504
    1  ERL   N2    3  -1.112   3.307   1.421
    1  ERL    C    4  -1.100   3.544   1.450
    1  ERL   C1    5  -1.232   3.541   1.495
    1  ERL   C2    6  -1.101   3.786   1.471
    1  ERL   C3    7  -1.234   3.782   1.520
    1  ERL   C4    8  -1.035   3.667   1.438
    1  ERL   C5    9  -1.040   3.422   1.413
    1  ERL   C6   10  -1.297   3.657   1.531
    1  ERL   C7   11  -1.240   3.307   1.467
    1  ERL    H   12  -0.837   3.471   1.429
    1  ERL   C8   13  -0.859   3.306   1.297
    1  ERL   C9   14  -0.747   3.235   1.337
    1  ERL  C10   15  -0.929   3.267   1.181
    1  ERL  C11   16  -0.706   3.124   1.264
    1  ERL  C12   17  -0.884   3.160   1.104
    1  ERL  C13   18  -0.772   3.087   1.147
    1  ERL  C14   19  -0.598   3.048   1.316
    1  ERL  C15   20  -0.507   2.990   1.368
    1  ERL    O   21  -1.035   3.902   1.452
    1  ERL  C16   22  -0.978   3.970   1.556
    1  ERL  C17   23  -0.826   3.970   1.538
    1  ERL   O1   24  -0.775   3.843   1.564
    1  ERL  C18   25  -0.690   3.816   1.456
    1  ERL   O2   26  -1.300   3.895   1.554
    1  ERL  C19   27  -1.431   3.889   1.599
    1  ERL  C20   28  -1.471   4.018   1.666
    1  ERL   O3   29  -1.565   3.990   1.765
    1  ERL  C21   30  -1.529   4.072   1.872
   21.17400    21.63200    15.35600
